============================== echo of input deck ==============================
echo

start ethanol_opt_freq

memory 4096 mb

title "B3LYP-D3/def2-svp(ecp): optimization + freq"
charge 0

# input: hand-drawn, no conformer search
geometry
 C                 -1.07824429   -0.05725191    0.00000000
 H                 -0.72158987   -1.06606191    0.00000000
 H                 -0.72157145    0.44714628   -0.87365150
 H                 -2.14824429   -0.05723872    0.00000000
 C                 -0.56490207    0.66870437    1.25740497
 H                 -0.91995842    1.67807746    1.25642745
 H                  0.50509612    0.66699768    1.25838372
 O                 -1.04371032   -0.00388803    2.42499314
 H                 -0.72391963    0.44832544    3.20910850
end

basis
  * library def2-svp
end

dft
  xc b3lyp
  mult 1
  disp vdw 3
  grid fine
  direct
  noio
end

set driver:linopt 0
driver
  tight
  maxiter 500
end

task dft optimize
task dft freq

================================================================================

         Total DFT energy =     -154.926697238636
@ Step       Energy      Delta E   Gmax     Grms     Xrms     Xmax   Walltime
@ ---- ---------------- -------- -------- -------- -------- -------- --------
@    0    -154.92669724  0.0D+00  0.02661  0.00963  0.00000  0.00000     12.4
         Total DFT energy =     -154.931203069546
@    1    -154.93120307 -4.5D-03  0.00253  0.00083  0.03798  0.06988     25.9
         Total DFT energy =     -154.931374584239
@    2    -154.93137458 -1.7D-04  0.00139  0.00044  0.00638  0.01474     36.6
         Total DFT energy =     -154.931437642487
@    3    -154.93143764 -6.3D-05  0.00054  0.00015  0.00458  0.00970     47.8
         Total DFT energy =     -154.931443469617
@    4    -154.93144347 -5.8D-06  0.00031  0.00007  0.00157  0.00323     56.0
         Total DFT energy =     -154.931444730010
@    5    -154.93144473 -1.3D-06  0.00010  0.00002  0.00084  0.00205     64.5
         Total DFT energy =     -154.931444808816
@    6    -154.93144481 -7.9D-08  0.00005  0.00001  0.00016  0.00037     71.3
         Total DFT energy =     -154.931444814670
@    7    -154.93144481 -5.9D-09  0.00001  0.00000  0.00005  0.00012     77.6
         Total DFT energy =     -154.931444817486

 Vector   71  Occ=0.000000D+00  E= 3.325989D+00  Symmetry=a'

 Vector   72  Occ=0.000000D+00  E= 3.761903D+00  Symmetry=a'

 Vector   73  Occ=0.000000D+00  E= 5.134989D+00  Symmetry=a'

 Vector   74  Occ=0.000000D+00  E= 5.362034D+00  Symmetry=a'

 Vector   75  Occ=0.000000D+00  E= 6.211645D+00  Symmetry=a'

@    8    -154.93144482 -2.8D-09  0.00000  0.00000  0.00001  0.00002     85.4
@    8    -154.93144482 -2.8D-09  0.00000  0.00000  0.00001  0.00002     85.4

 Output coordinates in angstroms (scale by  1.889725989 to convert to a.u.)

  No.       Tag          Charge          X              Y              Z
 ---- ---------------- ---------- -------------- -------------- --------------
    1 C                    6.0000    -0.26285406    -1.21484569     0.00000000
    2 H                    1.0000    -0.90947126    -1.26078419     0.89091302
    3 H                    1.0000     0.40042607    -2.09484539     0.00000000
    4 H                    1.0000    -0.90947126    -1.26078419    -0.89091302
    5 C                    6.0000     0.54115149     0.07434187     0.00000000
    6 H                    1.0000     1.20468148     0.09879071    -0.89109843
    7 H                    1.0000     1.20468148     0.09879071     0.89109843
    8 O                    8.0000    -0.36822779     1.15973453     0.00000000
    9 H                    1.0000     0.13836403     1.98149819     0.00000000

         Total DFT energy =     -154.931444978059

                       DFT Final Molecular Orbital Analysis
                       ------------------------------------

 Vector    1  Occ=2.000000D+00  E=-1.913671D+01

 Vector    2  Occ=2.000000D+00  E=-1.023901D+01

 Vector    3  Occ=2.000000D+00  E=-1.018455D+01

 Vector    4  Occ=2.000000D+00  E=-1.000353D+00

 Vector    5  Occ=2.000000D+00  E=-7.373712D-01

 Vector    6  Occ=2.000000D+00  E=-5.997447D-01

 Vector    7  Occ=2.000000D+00  E=-5.138804D-01

 Vector    8  Occ=2.000000D+00  E=-4.597222D-01

 Vector    9  Occ=2.000000D+00  E=-3.985127D-01

 Vector   10  Occ=2.000000D+00  E=-3.808107D-01

 Vector   11  Occ=2.000000D+00  E=-3.607713D-01

 Vector   12  Occ=2.000000D+00  E=-3.263303D-01

 Vector   13  Occ=2.000000D+00  E=-2.655198D-01

 Vector   14  Occ=0.000000D+00  E= 5.032652D-02

 Vector   15  Occ=0.000000D+00  E= 8.360723D-02

 Vector   16  Occ=0.000000D+00  E= 1.164423D-01

 Vector   17  Occ=0.000000D+00  E= 1.186635D-01

 Vector   18  Occ=0.000000D+00  E= 1.384942D-01

 Vector   19  Occ=0.000000D+00  E= 1.622882D-01

 Vector   20  Occ=0.000000D+00  E= 2.044701D-01

 Vector   21  Occ=0.000000D+00  E= 2.330161D-01

 Vector   22  Occ=0.000000D+00  E= 4.290972D-01

 Vector   23  Occ=0.000000D+00  E= 4.372837D-01

 Vector   24  Occ=0.000000D+00  E= 4.689384D-01

 Vector   25  Occ=0.000000D+00  E= 4.957603D-01

 Vector   26  Occ=0.000000D+00  E= 5.722066D-01

 Vector   27  Occ=0.000000D+00  E= 5.848164D-01

 Vector   28  Occ=0.000000D+00  E= 6.192947D-01

 Vector   29  Occ=0.000000D+00  E= 6.469814D-01

 Vector   30  Occ=0.000000D+00  E= 6.534506D-01

 Vector   31  Occ=0.000000D+00  E= 6.685035D-01

 Vector   32  Occ=0.000000D+00  E= 6.918866D-01

 Vector   33  Occ=0.000000D+00  E= 6.942611D-01

 Vector   34  Occ=0.000000D+00  E= 7.099318D-01

 Vector   35  Occ=0.000000D+00  E= 8.718313D-01

 Vector   36  Occ=0.000000D+00  E= 9.725059D-01

 Vector   37  Occ=0.000000D+00  E= 1.005024D+00

 Vector   38  Occ=0.000000D+00  E= 1.075528D+00

 Vector   39  Occ=0.000000D+00  E= 1.200725D+00

 Vector   40  Occ=0.000000D+00  E= 1.269076D+00

 Vector   41  Occ=0.000000D+00  E= 1.365291D+00

 Vector   42  Occ=0.000000D+00  E= 1.380746D+00

 Vector   43  Occ=0.000000D+00  E= 1.468779D+00

 Vector   44  Occ=0.000000D+00  E= 1.477811D+00

 Vector   45  Occ=0.000000D+00  E= 1.536468D+00

 Vector   46  Occ=0.000000D+00  E= 1.697476D+00

 Vector   47  Occ=0.000000D+00  E= 1.720747D+00

 Vector   48  Occ=0.000000D+00  E= 1.747085D+00

 Vector   49  Occ=0.000000D+00  E= 1.776533D+00

 Vector   50  Occ=0.000000D+00  E= 1.810393D+00

 Vector   51  Occ=0.000000D+00  E= 1.817683D+00

 Vector   52  Occ=0.000000D+00  E= 1.854616D+00

 Vector   53  Occ=0.000000D+00  E= 1.882682D+00

 Vector   54  Occ=0.000000D+00  E= 1.885717D+00

 Vector   55  Occ=0.000000D+00  E= 2.036805D+00

 Vector   56  Occ=0.000000D+00  E= 2.159820D+00

 Vector   57  Occ=0.000000D+00  E= 2.194398D+00

 Vector   58  Occ=0.000000D+00  E= 2.217258D+00

 Vector   59  Occ=0.000000D+00  E= 2.365682D+00

 Vector   60  Occ=0.000000D+00  E= 2.392421D+00

 Vector   61  Occ=0.000000D+00  E= 2.482792D+00

 Vector   62  Occ=0.000000D+00  E= 2.545218D+00

 Vector   63  Occ=0.000000D+00  E= 2.655503D+00

 Vector   64  Occ=0.000000D+00  E= 2.774798D+00

 Vector   65  Occ=0.000000D+00  E= 2.854151D+00

 Vector   66  Occ=0.000000D+00  E= 2.906764D+00

 Vector   67  Occ=0.000000D+00  E= 2.937855D+00

 Vector   68  Occ=0.000000D+00  E= 2.999168D+00

 Vector   69  Occ=0.000000D+00  E= 3.100474D+00

 Vector   70  Occ=0.000000D+00  E= 3.154642D+00

 Vector   71  Occ=0.000000D+00  E= 3.325990D+00

 Vector   72  Occ=0.000000D+00  E= 3.761904D+00

 Vector   73  Occ=0.000000D+00  E= 5.134989D+00

 Vector   74  Occ=0.000000D+00  E= 5.362034D+00

 Vector   75  Occ=0.000000D+00  E= 6.211647D+00

     Multipole analysis of the density
     ---------------------------------

     L   x y z        total         alpha         beta         nuclear
     -   - - -        -----         -----         ----         -------
     0   0 0 0     -0.000000    -13.000000    -13.000000     26.000000

     1   1 0 0      0.585482      0.431472      0.431472     -0.277463
     1   0 1 0      0.115012      0.059850      0.059850     -0.004688
     1   0 0 1     -0.000000     -0.000000     -0.000000      0.000000

     2   2 0 0    -15.232483    -21.887345    -21.887345     28.542208
     2   1 1 0      1.392146     -0.567416     -0.567416      2.526979
     2   1 0 1     -0.000000     -0.000000     -0.000000      0.000000
     2   0 2 0    -12.628239    -61.954014    -61.954014    111.279789
     2   0 1 1     -0.000000     -0.000000     -0.000000      0.000000

 Zero-Point correction to Energy  =   49.890 kcal/mol  (  0.079505 au)
 Thermal correction to Energy     =   52.561 kcal/mol  (  0.083762 au)
 Thermal correction to Enthalpy   =   53.154 kcal/mol  (  0.084706 au)
 Total Entropy                    =   64.265 cal/mol-K
   - Translational                =   37.389 cal/mol-K (mol. weight =  46.0419)
   - Rotational                   =   22.304 cal/mol-K (symmetry #  =        1)
   - Vibrational                  =    4.572 cal/mol-K
   - Translational                  =    2.979 cal/mol-K
   - Rotational                     =    2.979 cal/mol-K
   - Vibrational                    =    7.496 cal/mol-K
 P.Frequency       -0.00        0.00        0.00        0.00        0.00        0.00
 P.Frequency      262.61      301.90      419.61      828.27      914.30     1039.10
 P.Frequency     1129.98     1175.76     1267.21     1290.90     1381.71     1450.48
 P.Frequency     1456.63     1476.59     1509.58     2946.74     2974.20     3032.28
 P.Frequency     3117.76     3118.34     3821.44

 Normal Eigenvalue ||           Projected Infra Red Intensities
  Mode   [cm**-1]  || [atomic units] [(debye/angs)**2] [(KM/mol)] [arbitrary]
 ------ ---------- || -------------- ----------------- ---------- -----------
    1       -0.000 ||    0.005074           0.117         4.946       2.220
    2        0.000 ||    0.000307           0.007         0.300       0.134
    3        0.000 ||    0.000254           0.006         0.248       0.111
    4        0.000 ||    0.001111           0.026         1.083       0.486
    5        0.000 ||    0.000394           0.009         0.384       0.172
    6        0.000 ||    0.001207           0.028         1.176       0.528
    7      262.611 ||    0.034396           0.794        33.531      15.046
    8      301.896 ||    0.092594           2.136        90.265      40.505
    9      419.607 ||    0.010758           0.248        10.487       4.706
   10      828.272 ||    0.000009           0.000         0.009       0.004
   11      914.297 ||    0.008882           0.205         8.659       3.886
   12     1039.102 ||    0.049111           1.133        47.875      21.483
   13     1129.975 ||    0.037906           0.875        36.953      16.582
   14     1175.761 ||    0.004874           0.112         4.751       2.132
   15     1267.207 ||    0.092613           2.137        90.284      40.514
   16     1290.897 ||    0.000015           0.000         0.014       0.006
   17     1381.708 ||    0.000442           0.010         0.431       0.194
   18     1450.483 ||    0.005592           0.129         5.451       2.446
   19     1456.627 ||    0.015464           0.357        15.075       6.765
   20     1476.593 ||    0.002316           0.053         2.258       1.013
   21     1509.576 ||    0.004174           0.096         4.069       1.826
   22     2946.739 ||    0.078943           1.821        76.958      34.534
   23     2974.200 ||    0.078957           1.822        76.971      34.540
   24     3032.280 ||    0.014484           0.334        14.120       6.336
   25     3117.761 ||    0.026615           0.614        25.945      11.643
   26     3118.337 ||    0.024385           0.563        23.772      10.667
   27     3821.436 ||    0.026337           0.608        25.675      11.521
 ----------------------------------------------------------------------------

 Total times  cpu:      426.7s     wall:      445.5s
