 Gaussian 16, Revision A.03,
 Gaussian 16:  ES64L-G16RevA.03 25-Dec-2016

 -------------------------------------------------------------
 # opt freq b3lyp/3-21g scrf=(solvent=water) geom=connectivity
 -------------------------------------------------------------

 -------------------
 Title Card Required
 -------------------
 Symbolic Z-matrix:
 Charge =  0 Multiplicity = 1

 SCF Done:  E(RB3LYP) =  -154.181138802     A.U. after    9 cycles
 SCF Done:  E(RB3LYP) =  -154.185950999     A.U. after    9 cycles
 SCF Done:  E(RB3LYP) =  -154.186101003     A.U. after    8 cycles
 SCF Done:  E(RB3LYP) =  -154.186115770     A.U. after    8 cycles
 SCF Done:  E(RB3LYP) =  -154.186117548     A.U. after    7 cycles
 Optimization completed.
    -- Stationary point found.
 Normal termination of Gaussian 16 at Mon Oct 13 14:54:26 2025.

 -----------------------------------------------------------------
 #N Geom=AllCheck Guess=TCheck SCRF=Check GenChk RB3LYP/3-21G Freq
 -----------------------------------------------------------------

 Structure from the checkpoint file:  "ethanol.chk"
 -------------------
 Title Card Required
 -------------------
 Charge =  0 Multiplicity = 1

                         Standard orientation:
 ---------------------------------------------------------------------
 Center     Atomic      Atomic             Coordinates (Angstroms)
 Number     Number       Type             X           Y           Z
 ---------------------------------------------------------------------
      1          6           0       -0.072191    0.573299   -0.000038
      2          1           0       -0.106461    1.221243   -0.888226
      3          1           0       -0.106546    1.221249    0.888132
      4          6           0        1.224639   -0.236946    0.000041
      5          1           0        2.093763    0.427935    0.000020
      6          1           0        1.262166   -0.874638    0.888641
      7          1           0        1.262203   -0.874712   -0.888506
      8          8           0       -1.162688   -0.405311   -0.000086
      9          1           0       -2.018310    0.103302    0.000612
 ---------------------------------------------------------------------

 SCF Done:  E(RB3LYP) =  -154.186117548     A.U. after    1 cycles

 The electronic state is 1-A.
 Alpha  occ. eigenvalues --  -19.01558 -10.16290 -10.10745  -0.99172  -0.74441
 Alpha  occ. eigenvalues --   -0.60412  -0.49584  -0.45863  -0.38805  -0.37523
 Alpha  occ. eigenvalues --   -0.35899  -0.31109  -0.24664
 Alpha virt. eigenvalues --    0.10316   0.14162   0.17648   0.18752   0.19693
 Alpha virt. eigenvalues --    0.22039   0.22328   0.25540   0.70921   0.71422
 Alpha virt. eigenvalues --    0.74707   0.77993   0.79615   0.87959   0.96399

 Mulliken charges:
               1
     1  C   -0.149789
     2  H    0.180490
     3  H    0.180509
     4  C   -0.569457
     5  H    0.192941
     6  H    0.197473
     7  H    0.197475
     8  O   -0.581750
     9  H    0.352109
 Sum of Mulliken charges =  -0.00000

 Dipole moment (field-independent basis, Debye):
    X=             -0.2971    Y=              1.9872    Z=              0.0015  Tot=              2.0093
 Quadrupole moment (field-independent basis, Debye-Ang):
   XX=            -16.2722   YY=            -20.2395   ZZ=            -19.8350
   XY=             -2.0561   XZ=             -0.0029   YZ=              0.0002

  Exact polarizability:  33.128  -0.179  28.306  -0.004   0.001  25.804
 Approx polarizability:  33.469   1.254  31.525  -0.004   0.002  27.038

                      1                      2                      3
                      A                      A                      A
 Frequencies --    241.0599               293.1385               396.9294
 Red. masses --      1.1471                 1.0701                 2.7179
 Frc consts  --      0.0393                 0.0542                 0.2523
 IR Inten    --     42.4763               151.7095                18.4389

                      4                      5                      6
                      A                      A                      A
 Frequencies --    857.4765               891.1909               997.8098
 Red. masses --      1.0826                 2.7606                 3.3394
 Frc consts  --      0.4690                 1.2918                 1.9589
 IR Inten    --      0.4085                15.4621                79.8706

                      7                      8                      9
                      A                      A                      A
 Frequencies --   1110.3889              1181.7725              1287.0836
 Red. masses --      1.6526                 1.3814                 1.1945
 Frc consts  --      1.2005                 1.1367                 1.1659
 IR Inten    --      5.4992                 6.4026                88.6182

                     10                     11                     12
                      A                      A                      A
 Frequencies --   1323.7827              1449.9676              1470.9342
 Red. masses --      1.1808                 1.2121                 1.3811
 Frc consts  --      1.2192                 1.5014                 1.7606
 IR Inten    --      1.4104                13.9917                 7.2911

                     13                     14                     15
                      A                      A                      A
 Frequencies --   1541.1388              1557.6944              1590.2141
 Red. masses --      1.0409                 1.0372                 1.0842
 Frc consts  --      1.4566                 1.4828                 1.6154
 IR Inten    --      9.1636                 6.1174                 2.0944

                     16                     17                     18
                      A                      A                      A
 Frequencies --   2997.8468              3019.9093              3060.8580
 Red. masses --      1.0531                 1.1068                 1.0325
 Frc consts  --      5.5760                 5.9469                 5.6996
 IR Inten    --     72.5896                89.9167                17.3290

                     19                     20                     21
                      A                      A                      A
 Frequencies --   3128.0935              3130.9761              3476.5007
 Red. masses --      1.1016                 1.1009                 1.0660
 Frc consts  --      6.3511                 6.3588                 7.5912
 IR Inten    --     50.7162                34.9030                 0.9136

 - Thermochemistry -
 -------------------
 Temperature   298.150 Kelvin.  Pressure   1.00000 Atm.
 Atom     1 has atomic number  6 and mass  12.00000

 Molecular mass:    46.04186 amu.
 Principal axes and moments of inertia in atomic units:
                           1         2         3
     Eigenvalues --    53.79863 194.88539 225.96097
           X            0.99907  -0.04312  -0.00002
           Y            0.04312   0.99907  -0.00000
           Z            0.00002   0.00000   1.00000
 This molecule is an asymmetric top.
 Rotational symmetry number  1.
 Rotational temperatures (Kelvin)      1.60997     0.44444     0.38331
 Rotational constants (GHZ):          33.54623     9.26053     7.98696
 Zero-point vibrational energy     209375.0 (Joules/Mol)
                                   50.04183 (Kcal/Mol)
 Warning -- explicit consideration of   3 degrees of freedom as
           vibrations may cause significant error
 Vibrational temperatures:    346.83   421.76   571.09  1233.72  1282.22
          (Kelvin)           1435.63  1597.60  1700.31  1851.83  1904.63
                             2086.18  2116.35  2217.35  2241.17  2287.96
                             4313.23  4344.98  4403.89  4500.63  4504.78
                             5001.91

 Zero-point correction=                           0.079747 (Hartree/Particle)
 Thermal correction to Energy=                    0.084063
 Thermal correction to Enthalpy=                  0.085007
 Thermal correction to Gibbs Free Energy=         0.054297
 Sum of electronic and zero-point Energies=           -154.106371
 Sum of electronic and thermal Energies=              -154.102055
 Sum of electronic and thermal Enthalpies=            -154.101111
 Sum of electronic and thermal Free Energies=         -154.131821

                     E (Thermal)             CV                S
                      KCal/Mol        Cal/Mol-Kelvin    Cal/Mol-Kelvin
 Total                   52.750             13.488             64.635
 Electronic               0.000              0.000              0.000
 Translational            0.889              2.981             37.406
 Rotational               0.889              2.981             22.387
 Vibrational             50.973              7.526              4.842
 Vibration     1          0.658              1.777              1.795
 Vibration     2          0.688              1.687              1.456
 Vibration     3          0.763              1.477              0.974

 Optimization completed.
    -- Stationary point found.
 Normal termination of Gaussian 16 at Mon Oct 13 14:54:49 2025.
